128  
7    

1    
  0.0100000000000000   0.0000000000000000   0.0000000000000000
  -0.0203176100    0.0000000000    0.0000000000
   0.0018553900    0.0000000000    0.0000000000
   0.0001096000    0.0000000000    0.0000000000
   0.0018237100    0.0000000000    0.0000000000
   0.0000841400   -0.0010113900    0.0002834500
   0.0000812100    0.0010168600   -0.0002835500
   0.0000878700    0.0000351700   -0.0000110200
   0.0000872800   -0.0000336200    0.0000112300
  -0.0000281300   -0.0000780100    0.0000686400
   0.0000273600    0.0000005300   -0.0000000800
  -0.0000281300    0.0000780100   -0.0000686400
   0.0000273600   -0.0000005300    0.0000000800
   0.0000812100   -0.0010168600    0.0002835500
   0.0000878700   -0.0000351700    0.0000110200
   0.0000872800    0.0000336200   -0.0000112300
   0.0000841400    0.0010113900   -0.0002834500
  -0.0000760800    0.0000000000    0.0000000000
   0.0000029600    0.0000000000    0.0000000000
   0.0000656300    0.0000000000    0.0000000000
   0.0000019200    0.0000000000    0.0000000000
  -0.0000355100   -0.0000226800   -0.0000083400
  -0.0000345800    0.0000212700    0.0000069000
   0.0000338000    0.0000059700    0.0000349600
   0.0000345300   -0.0000060000   -0.0000347000
  -0.0000225300   -0.0000513500   -0.0000521900
   0.0000239900   -0.0000005500    0.0000001700
  -0.0000225300    0.0000513500    0.0000521900
   0.0000239900    0.0000005500   -0.0000001700
  -0.0000345800   -0.0000212700   -0.0000069000
   0.0000338000   -0.0000059700   -0.0000349600
   0.0000345300    0.0000060000    0.0000347000
  -0.0000355100    0.0000226800    0.0000083400
   0.0010440600   -0.0000180700    0.0022036900
  -0.0002307200   -0.0001011900    0.0024082100
  -0.0000010900    0.0000032600    0.0021858000
  -0.0002314400    0.0001003900    0.0019620000
  -0.0000027900    0.0000353400    0.0021033700
   0.0000025500   -0.0000256200    0.0022530600
  -0.0000161000    0.0000098000    0.0021548200
  -0.0000093600   -0.0000030900    0.0022006300
   0.0000641300   -0.0000530800    0.0021269100
  -0.0000205800   -0.0000034600    0.0021811600
   0.0000621800    0.0000410400    0.0022314700
  -0.0000539300   -0.0000040800    0.0021813200
   0.0039085100   -0.0016585300   -0.0007341100
   0.0000434700   -0.0000180900    0.0022088800
   0.0000505900    0.0000157000    0.0021628800
   0.0037946400    0.0015868600    0.0049538900
   0.0000114800   -0.0000015800   -0.0021842400
   0.0000021600   -0.0001212500   -0.0021368100
  -0.0000629600    0.0000034000   -0.0021861000
   0.0000000200    0.0001213600   -0.0022320900
  -0.0000165400   -0.0000392700   -0.0021817300
  -0.0000103300    0.0000489000   -0.0021747500
  -0.0000105200   -0.0000292900   -0.0021585200
  -0.0000037900    0.0000357900   -0.0021976400
  -0.0000405900    0.0000441600   -0.0021263800
   0.0000046800   -0.0000031800   -0.0021818900
  -0.0000417700   -0.0000564500   -0.0022326100
   0.0002134100   -0.0000033500   -0.0021827800
   0.0000539300   -0.0000243500   -0.0021354000
  -0.0000346500   -0.0000247400   -0.0021294800
  -0.0000286200    0.0000232300   -0.0022411900
   0.0000538600    0.0000269500   -0.0022304500
   0.0000539300    0.0000243500    0.0021354000
  -0.0000346500    0.0000247400    0.0021294800
  -0.0000286200   -0.0000232300    0.0022411900
   0.0000538600   -0.0000269500    0.0022304500
   0.0002134100    0.0000033500    0.0021827800
  -0.0000405900   -0.0000441600    0.0021263800
   0.0000046800    0.0000031800    0.0021818900
  -0.0000417700    0.0000564500    0.0022326100
  -0.0000105200    0.0000292900    0.0021585200
  -0.0000037900   -0.0000357900    0.0021976400
  -0.0000165400    0.0000392700    0.0021817300
  -0.0000103300   -0.0000489000    0.0021747500
   0.0000021600    0.0001212500    0.0021368100
  -0.0000629600   -0.0000034000    0.0021861000
   0.0000000200   -0.0001213600    0.0022320900
   0.0000114800    0.0000015800    0.0021842400
   0.0039085100    0.0016585300    0.0007341100
   0.0000434700    0.0000180900   -0.0022088800
   0.0000505900   -0.0000157000   -0.0021628800
   0.0037946400   -0.0015868600   -0.0049538900
  -0.0000539300    0.0000040800   -0.0021813200
   0.0000641300    0.0000530800   -0.0021269100
  -0.0000205800    0.0000034600   -0.0021811600
   0.0000621800   -0.0000410400   -0.0022314700
  -0.0000161000   -0.0000098000   -0.0021548200
  -0.0000093600    0.0000030900   -0.0022006300
  -0.0000027900   -0.0000353400   -0.0021033700
   0.0000025500    0.0000256200   -0.0022530600
  -0.0002307200    0.0001011900   -0.0024082100
  -0.0000010900   -0.0000032600   -0.0021858000
  -0.0002314400   -0.0001003900   -0.0019620000
   0.0010440600    0.0000180700   -0.0022036900
  -0.0014656300   -0.0000011600    0.0000142600
   0.0008100300    0.0006231300   -0.0003277600
  -0.0000931000    0.0000003500   -0.0000003400
   0.0008027500   -0.0006337700    0.0003214900
  -0.0000606800   -0.0001455500    0.0003130900
  -0.0000674900    0.0001455900   -0.0003138500
   0.0000923800   -0.0000462800    0.0000036400
   0.0000910900    0.0000445500   -0.0000032900
  -0.0000245100    0.0000395500    0.0000645700
  -0.0000175300    0.0000006100    0.0000005400
  -0.0000251900   -0.0000399800   -0.0000650900
   0.0001715600    0.0000007400    0.0000010000
  -0.0002958100   -0.0009935500   -0.0000087200
  -0.0000908900    0.0000448700    0.0000529000
  -0.0000897900   -0.0000391900   -0.0000535000
  -0.0003032300    0.0009970100    0.0000136800
  -0.0014656300    0.0000011600   -0.0000142600
   0.0008100300   -0.0006231300    0.0003277600
  -0.0000931000   -0.0000003500    0.0000003400
   0.0008027500    0.0006337700   -0.0003214900
  -0.0003032300   -0.0009970100   -0.0000136800
  -0.0002958100    0.0009935500    0.0000087200
  -0.0000908900   -0.0000448700   -0.0000529000
  -0.0000897900    0.0000391900    0.0000535000
  -0.0000251900    0.0000399800    0.0000650900
   0.0001715600   -0.0000007400   -0.0000010000
  -0.0000245100   -0.0000395500   -0.0000645700
  -0.0000175300   -0.0000006100   -0.0000005400
  -0.0000674900   -0.0001455900    0.0003138500
   0.0000923800    0.0000462800   -0.0000036400
   0.0000910900   -0.0000445500    0.0000032900
  -0.0000606800    0.0001455500   -0.0003130900

1    
  0.0000000000000000   0.0000000000000000   0.0100000000000000
   0.0000000000    0.0000000000   -0.0272258700
  -0.0000031600   -0.0003271300   -0.0011427400
   0.0000000000   -0.0000770900   -0.0005268300
   0.0000031600   -0.0003271300   -0.0011427400
   0.0002848800    0.0001608300   -0.0011427400
  -0.0002848800    0.0001608300   -0.0011427400
  -0.0000102400   -0.0000059100   -0.0005176300
   0.0000102400   -0.0000059100   -0.0005176300
   0.0000667700    0.0000385500   -0.0005268300
   0.0000000000    0.0000118800   -0.0005173200
  -0.0000667700    0.0000385500   -0.0005268300
   0.0000000000    0.0000118300   -0.0005176300
   0.0002817200    0.0001663000   -0.0011427400
   0.0000102900   -0.0000059400   -0.0005173200
  -0.0000102900   -0.0000059400   -0.0005173200
  -0.0002817200    0.0001663000   -0.0011427400
   0.0000000000    0.0000000000    0.0007583100
  -0.0000003500   -0.0000098300    0.0006523900
   0.0000000000   -0.0000581100    0.0005204300
   0.0000003500   -0.0000098300    0.0006523900
   0.0000086900    0.0000046100    0.0006523900
  -0.0000086900    0.0000046100    0.0006523900
  -0.0000343600   -0.0000198400    0.0005256300
   0.0000343600   -0.0000198400    0.0005256300
   0.0000503200    0.0000290500    0.0005204300
   0.0000000000    0.0000396300    0.0005257600
  -0.0000503200    0.0000290500    0.0005204300
   0.0000000000    0.0000396700    0.0005256300
   0.0000083400    0.0000052200    0.0006523900
   0.0000343200   -0.0000198200    0.0005257600
  -0.0000343200   -0.0000198200    0.0005257600
  -0.0000083400    0.0000052200    0.0006523900
   0.0000000000   -0.0044470700    0.0051517400
  -0.0000718800   -0.0000415000    0.0023758300
   0.0000000000   -0.0000023400    0.0023635500
   0.0000718800   -0.0000415000    0.0023758300
   0.0000027800   -0.0000548700    0.0023529200
  -0.0000027800   -0.0000548700    0.0023529200
  -0.0000020300    0.0000011700    0.0023635500
   0.0000020300    0.0000011700    0.0023635500
  -0.0000461300    0.0000298400    0.0023529200
   0.0000000000    0.0000000000    0.0023332400
   0.0000461300    0.0000298400    0.0023529200
   0.0000000000    0.0000830000    0.0023758300
  -0.0038512800    0.0022235400    0.0051517400
  -0.0000489100    0.0000250300    0.0023529200
   0.0000489100    0.0000250300    0.0023529200
   0.0038512800    0.0022235400    0.0051517400
   0.0000000000   -0.0000399700   -0.0023871900
   0.0001651200    0.0000953300   -0.0025560400
   0.0000000000    0.0000156200   -0.0023338600
  -0.0001651200    0.0000953300   -0.0025560400
  -0.0000138600   -0.0000293500   -0.0023844900
   0.0000138600   -0.0000293500   -0.0023844900
   0.0000135300   -0.0000078100   -0.0023338600
  -0.0000135300   -0.0000078100   -0.0023338600
  -0.0000323500    0.0000026700   -0.0023844900
   0.0000000000    0.0000000000   -0.0023400200
   0.0000323500    0.0000026700   -0.0023844900
   0.0000000000   -0.0001906700   -0.0025560400
  -0.0000346200    0.0000199900   -0.0023871900
  -0.0000184900    0.0000266800   -0.0023844900
   0.0000184900    0.0000266800   -0.0023844900
   0.0000346200    0.0000199900   -0.0023871900
   0.0000425800    0.0000245900    0.0019030600
   0.0000166100    0.0000276900    0.0019000200
  -0.0000166100    0.0000276900    0.0019000200
  -0.0000425800    0.0000245900    0.0019030600
   0.0000000000   -0.0001914300    0.0017286300
   0.0000322800    0.0000005400    0.0019000200
   0.0000000000    0.0000000000    0.0019450700
  -0.0000322800    0.0000005400    0.0019000200
  -0.0000124000   -0.0000071600    0.0019509600
   0.0000124000   -0.0000071600    0.0019509600
   0.0000156700   -0.0000282300    0.0019000200
  -0.0000156700   -0.0000282300    0.0019000200
  -0.0001657800    0.0000957100    0.0017286300
   0.0000000000    0.0000143200    0.0019509600
   0.0001657800    0.0000957100    0.0017286300
   0.0000000000   -0.0000491700    0.0019030600
   0.0039590000    0.0022857300    0.0009647700
   0.0000461300    0.0000252900   -0.0019306100
  -0.0000461300    0.0000252900   -0.0019306100
  -0.0039590000    0.0022857300    0.0009647700
   0.0000000000    0.0000816600   -0.0019098200
   0.0000449600    0.0000273100   -0.0019306100
   0.0000000000    0.0000000000   -0.0019504700
  -0.0000449600    0.0000273100   -0.0019306100
   0.0000032100    0.0000018500   -0.0019207700
  -0.0000032100    0.0000018500   -0.0019207700
  -0.0000011700   -0.0000525900   -0.0019306100
   0.0000011700   -0.0000525900   -0.0019306100
   0.0000707200   -0.0000408300   -0.0019098200
   0.0000000000   -0.0000037100   -0.0019207700
  -0.0000707200   -0.0000408300   -0.0019098200
   0.0000000000   -0.0045714600    0.0009647700
   0.0000000000    0.0000000000    0.0046945300
  -0.0001528100   -0.0009632600    0.0004382800
   0.0000000000   -0.0000876000   -0.0000555500
   0.0001528100   -0.0009632600    0.0004382800
   0.0009106200    0.0003493000    0.0004382800
  -0.0009106200    0.0003493000    0.0004382800
   0.0000229000    0.0000132200   -0.0000810800
  -0.0000229000    0.0000132200   -0.0000810800
   0.0000758600    0.0000438000   -0.0000555500
   0.0000000000    0.0001288100   -0.0000402000
  -0.0000758600    0.0000438000   -0.0000555500
   0.0000000000   -0.0000264400   -0.0000810800
   0.0007578100    0.0006139700    0.0004382800
   0.0001115600   -0.0000644100   -0.0000402000
  -0.0001115600   -0.0000644100   -0.0000402000
  -0.0007578100    0.0006139700    0.0004382800
   0.0000000000    0.0000000000    0.0048407900
   0.0001501800   -0.0009598300    0.0004432000
   0.0000000000   -0.0000879700   -0.0000548700
  -0.0001501800   -0.0009598300    0.0004432000
   0.0007561500    0.0006099800    0.0004432000
  -0.0007561500    0.0006099800    0.0004432000
  -0.0001120000   -0.0000646600   -0.0000389000
   0.0001120000   -0.0000646600   -0.0000389000
   0.0000761900    0.0000439900   -0.0000548700
   0.0000000000   -0.0000284100   -0.0000801000
  -0.0000761900    0.0000439900   -0.0000548700
   0.0000000000    0.0001293300   -0.0000389000
   0.0009063300    0.0003498600    0.0004432000
  -0.0000246000    0.0000142000   -0.0000801000
   0.0000246000    0.0000142000   -0.0000801000
  -0.0009063300    0.0003498600    0.0004432000

33   
  0.0100000000000000   0.0000000000000000   0.0000000000000000
   0.0010504100    0.0000080200   -0.0000066100
  -0.0002364600    0.0001008300    0.0000736900
   0.0000051500   -0.0000008900   -0.0000009800
  -0.0002376800   -0.0001030100   -0.0000711900
   0.0038011900   -0.0015728300   -0.0038309300
   0.0039038200    0.0016623600    0.0039875300
   0.0000479600    0.0000645300    0.0000471100
   0.0000458400   -0.0000625900   -0.0000426300
   0.0000683600   -0.0000054500   -0.0000430100
  -0.0000610400   -0.0000004000    0.0000000800
   0.0000701900    0.0000066900    0.0000452400
  -0.0000241700   -0.0000007500   -0.0000001600
  -0.0000016900   -0.0000100400    0.0000003000
  -0.0000095200   -0.0000080800    0.0000036000
  -0.0000106400    0.0000086300   -0.0000018100
  -0.0000033000    0.0000096000   -0.0000006500
   0.0000180100   -0.0000023500   -0.0000015800
  -0.0000043100    0.0001211100    0.0001642700
  -0.0000570000   -0.0000005400    0.0000015500
  -0.0000048700   -0.0001215100   -0.0001641000
   0.0000545700   -0.0000200700    0.0000450700
   0.0000549500    0.0000215100   -0.0000425500
  -0.0000327500   -0.0000494500   -0.0000162200
  -0.0000308500    0.0000480600    0.0000138300
  -0.0000350000   -0.0000278100    0.0000282400
   0.0002062100   -0.0000013300    0.0000037800
  -0.0000354300    0.0000288900   -0.0000307400
   0.0000016200    0.0000002700    0.0000000500
  -0.0000147500    0.0000364900    0.0000175800
  -0.0000044000    0.0000303700    0.0000119700
  -0.0000053700   -0.0000306900   -0.0000142400
  -0.0000165400   -0.0000344800   -0.0000151900
  -0.1079140800   -0.0007025300    0.0029200500
   0.0057834600    0.0006553800    0.0004309000
   0.0000555800   -0.0000045100    0.0021523800
   0.0056343600   -0.0006407900    0.0038340400
   0.0011367900   -0.0019939700    0.0025321300
   0.0011352900    0.0020051000    0.0017741500
  -0.0001407300   -0.0000707400    0.0021772700
  -0.0001318400    0.0000711300    0.0021292300
   0.0000264000   -0.0000118000    0.0021506600
  -0.0000113800   -0.0000016400    0.0021583900
   0.0000328900    0.0000088500    0.0021572100
  -0.0000067100    0.0000007900    0.0021538800
   0.0011328400   -0.0033027000    0.0008255400
  -0.0001294100    0.0000738600    0.0021599400
  -0.0001318400   -0.0000617500    0.0021531500
   0.0011274300    0.0032738900    0.0034814700
  -0.0025084700    0.0000013200   -0.0021229600
   0.0008411500   -0.0010411000   -0.0033593600
   0.0001094600   -0.0000037300   -0.0021502800
   0.0008467600    0.0010500300   -0.0009563600
  -0.0008662500   -0.0020218200   -0.0004232900
  -0.0008783600    0.0020644100   -0.0039078800
   0.0000328400   -0.0000183500   -0.0021193400
   0.0000432400    0.0000253300   -0.0021877000
  -0.0001665000   -0.0001536100   -0.0021990300
   0.0000778300    0.0000012900   -0.0021586400
  -0.0001625900    0.0001470000   -0.0021087600
   0.0000883100    0.0000007400   -0.0021509500
  -0.0008803100    0.0000481800   -0.0016081200
   0.0000423200    0.0000220000   -0.0022174400
   0.0000437900   -0.0000166100   -0.0020951500
  -0.0008740900   -0.0000520800   -0.0026961800
   0.0000042300   -0.0000072800    0.0022037300
   0.0000390700    0.0000172200    0.0021166200
   0.0000537700   -0.0000084700    0.0021969900
   0.0000105300    0.0000008200    0.0021036100
   0.0000005200   -0.0000035700    0.0021594200
  -0.0000020300    0.0000264700    0.0021787100
   0.0000024600   -0.0000018500    0.0021497200
  -0.0000055200   -0.0000154100    0.0021224800
   0.0000434700   -0.0000189300    0.0021825300
   0.0000589500    0.0000184500    0.0021218000
  -0.0000056500   -0.0000093500    0.0021599900
   0.0000107000   -0.0000035000    0.0021496600
   0.0000213900    0.0000072100    0.0021486900
   0.0000530500   -0.0000086800    0.0021576200
   0.0000171700   -0.0000035200    0.0021647000
  -0.0000356900    0.0000097600    0.0021558200
   0.0008944100   -0.0007450200   -0.0004263100
   0.0000106500    0.0000559700   -0.0022517300
   0.0000202000   -0.0000460300   -0.0020695700
   0.0009005700    0.0007388300   -0.0038673800
  -0.0003874100   -0.0000050500   -0.0021624900
   0.0000947200    0.0000932600   -0.0020242700
   0.0000065700   -0.0000018200   -0.0021527000
   0.0000867100   -0.0000849000   -0.0022748300
   0.0000475200   -0.0000386900   -0.0021285700
   0.0000579700    0.0000362300   -0.0021774200
  -0.0000038200   -0.0000022800   -0.0021622500
   0.0000090000   -0.0000081800   -0.0021495200
  -0.0000412200    0.0000265400   -0.0022237400
   0.0000481300   -0.0000049900   -0.0021596500
  -0.0000428800   -0.0000247900   -0.0020909000
  -0.0000640600    0.0000077600   -0.0021588100
   0.0121060600    0.0000885400    0.0000491100
   0.0005611500   -0.0021321400   -0.0011243200
   0.0000090800   -0.0000009600    0.0000001100
   0.0005376100    0.0021059100    0.0011185800
   0.0366782800   -0.0141821300    0.0252673900
   0.0375049800    0.0146790000   -0.0261949700
   0.0005911700    0.0000027500   -0.0001166500
   0.0005729800   -0.0000031900    0.0001223200
   0.0000713300    0.0000393800   -0.0000308200
  -0.0031115900    0.0000013800    0.0000017500
   0.0000788400   -0.0000425100    0.0000237600
  -0.0002239000    0.0000029000    0.0000018500
   0.0003686300   -0.0004590200   -0.0001493700
   0.0001128400    0.0000662300    0.0001081100
   0.0001182400   -0.0000622200   -0.0001104800
   0.0003597600    0.0004533400    0.0001457000
   0.0004727900    0.0000021200    0.0000039700
  -0.0002946100    0.0001081300    0.0002224000
   0.0000397600    0.0000011400   -0.0000013900
  -0.0002867800   -0.0001056700   -0.0002216900
   0.0000050200    0.0002642000    0.0001936900
   0.0000132300   -0.0002716000   -0.0001912900
   0.0000037000    0.0000011600    0.0000281000
   0.0000099900    0.0000056300   -0.0000291900
   0.0000135700   -0.0000104600   -0.0000104700
  -0.0001051000    0.0000040000    0.0000000700
   0.0000162800    0.0000067700    0.0000128600
   0.0000114900   -0.0000062900   -0.0000001300
   0.0000112700    0.0000159100    0.0000177000
  -0.0000220300   -0.0000370900    0.0000099900
  -0.0000177900    0.0000313100   -0.0000105600
  -0.0000003900   -0.0000093900   -0.0000183300

33   
  0.0000000000000000   0.0000000000000000   0.0100000000000000
   0.0000000000   -0.0033535200    0.0030878900
  -0.0002236800    0.0001291400    0.0002383000
   0.0000000000   -0.0000215800    0.0002226900
   0.0002236800    0.0001291400    0.0002383000
  -0.0029042400    0.0016767600    0.0030878900
   0.0029042400    0.0016767600    0.0030878900
  -0.0000224300    0.0000715600    0.0002121400
   0.0000224300    0.0000715600    0.0002121400
  -0.0000507600   -0.0000552000    0.0002121400
   0.0000000000   -0.0002582800    0.0002383000
   0.0000507600   -0.0000552000    0.0002121400
   0.0000000000    0.0000000000    0.0001946300
  -0.0000731800   -0.0000163600    0.0002121400
   0.0000186900    0.0000107900    0.0002226900
  -0.0000186900    0.0000107900    0.0002226900
   0.0000731800   -0.0000163600    0.0002121400
   0.0000000000   -0.0000502500   -0.0002447000
   0.0000492200   -0.0000284200   -0.0004215100
   0.0000000000   -0.0000179700   -0.0001927900
  -0.0000492200   -0.0000284200   -0.0004215100
  -0.0000435100    0.0000251200   -0.0002447000
   0.0000435100    0.0000251200   -0.0002447000
   0.0000581900    0.0000286900   -0.0002441900
  -0.0000581900    0.0000286900   -0.0002441900
  -0.0000539400    0.0000360400   -0.0002441900
   0.0000000000    0.0000568400   -0.0004215100
   0.0000539400    0.0000360400   -0.0002441900
   0.0000000000    0.0000000000   -0.0001998300
   0.0000042400   -0.0000647400   -0.0002441900
   0.0000155600    0.0000089800   -0.0001927900
  -0.0000155600    0.0000089800   -0.0001927900
  -0.0000042400   -0.0000647400   -0.0002441900
   0.0000000000    0.0000000000   -0.1191840000
   0.0017012900    0.0005493200   -0.0010735600
   0.0000000000   -0.0000000200    0.0015700600
  -0.0017012900    0.0005493200   -0.0010735600
  -0.0013263700    0.0011987000   -0.0010735600
   0.0013263700    0.0011987000   -0.0010735600
  -0.0000090300   -0.0000052100    0.0020145700
   0.0000090300   -0.0000052100    0.0020145700
   0.0000000200    0.0000000100    0.0015700600
   0.0000000000   -0.0000340200    0.0020169200
  -0.0000000200    0.0000000100    0.0015700600
   0.0000000000    0.0000104200    0.0020145700
   0.0003749200   -0.0017480200   -0.0010735600
  -0.0000294600    0.0000170100    0.0020169200
   0.0000294600    0.0000170100    0.0020169200
  -0.0003749200   -0.0017480200   -0.0010735600
   0.0000000000    0.0000000000    0.0129813700
  -0.0012026100    0.0013262900   -0.0018295300
   0.0000000000   -0.0000524600   -0.0020825100
   0.0012026100    0.0013262900   -0.0018295300
  -0.0005473000   -0.0017046300   -0.0018295300
   0.0005473000   -0.0017046300   -0.0018295300
  -0.0000631100   -0.0000364400   -0.0023935300
   0.0000631100   -0.0000364400   -0.0023935300
   0.0000454300    0.0000262300   -0.0020825100
   0.0000000000    0.0000340300   -0.0023947400
  -0.0000454300    0.0000262300   -0.0020825100
   0.0000000000    0.0000728800   -0.0023935300
  -0.0017499000    0.0003783400   -0.0018295300
   0.0000294700   -0.0000170100   -0.0023947400
  -0.0000294700   -0.0000170100   -0.0023947400
   0.0017499000    0.0003783400   -0.0018295300
  -0.0000481100    0.0000277800    0.0024468700
   0.0000310300    0.0000078900    0.0022723900
  -0.0000310300    0.0000078900    0.0022723900
   0.0000481100    0.0000277800    0.0024468700
   0.0000000000   -0.0000555500    0.0024468700
  -0.0000264400   -0.0000152700    0.0023913100
   0.0000000000   -0.0000028500    0.0022021300
   0.0000264400   -0.0000152700    0.0023913100
  -0.0000223500    0.0000229200    0.0022723900
   0.0000223500    0.0000229200    0.0022723900
  -0.0000024700    0.0000014300    0.0022021300
   0.0000024700    0.0000014300    0.0022021300
   0.0000086800   -0.0000308100    0.0022723900
   0.0000000000    0.0000000000    0.0021774100
  -0.0000086800   -0.0000308100    0.0022723900
   0.0000000000    0.0000305300    0.0023913100
   0.0017347200   -0.0010015400   -0.0000914200
  -0.0001004800    0.0000208800   -0.0023434100
   0.0001004800    0.0000208800   -0.0023434100
  -0.0017347200   -0.0010015400   -0.0000914200
   0.0000000000    0.0020030900   -0.0000914200
   0.0001312500    0.0000757800   -0.0019825300
   0.0000000000   -0.0000026900   -0.0022023600
  -0.0001312500    0.0000757800   -0.0019825300
   0.0000321600   -0.0000974600   -0.0023434100
  -0.0000321600   -0.0000974600   -0.0023434100
  -0.0000023300    0.0000013400   -0.0022023600
   0.0000023300    0.0000013400   -0.0022023600
  -0.0000683200    0.0000765800   -0.0023434100
   0.0000000000    0.0000000000   -0.0021654000
   0.0000683200    0.0000765800   -0.0023434100
   0.0000000000   -0.0001515600   -0.0019825300
   0.0000000000    0.0265854900    0.0340238300
  -0.0014327700    0.0008272100    0.0021499400
   0.0000000000   -0.0001016700   -0.0000589500
   0.0014327700    0.0008272100    0.0021499400
   0.0230237100   -0.0132927400    0.0340238300
  -0.0230237100   -0.0132927400    0.0340238300
  -0.0002855500    0.0000121800    0.0006236500
   0.0002855500    0.0000121800    0.0006236500
   0.0001322300   -0.0002533900    0.0006236500
   0.0000000000   -0.0016544200    0.0021499400
  -0.0001322300   -0.0002533900    0.0006236500
   0.0000000000    0.0000000000    0.0002713100
  -0.0001533300    0.0002412100    0.0006236500
   0.0000880500    0.0000508400   -0.0000589500
  -0.0000880500    0.0000508400   -0.0000589500
   0.0001533300    0.0002412100    0.0006236500
   0.0000000000    0.0002564800   -0.0005473400
  -0.0003330400    0.0001922800    0.0002763800
   0.0000000000    0.0000145600    0.0000054800
   0.0003330400    0.0001922800    0.0002763800
   0.0002221200   -0.0001282400   -0.0005473400
  -0.0002221200   -0.0001282400   -0.0005473400
   0.0000805500    0.0000625200    0.0000179500
  -0.0000805500    0.0000625200    0.0000179500
  -0.0000944200    0.0000385000    0.0000179500
   0.0000000000   -0.0003845600    0.0002763800
   0.0000944200    0.0000385000    0.0000179500
   0.0000000000    0.0000000000    0.0000099600
  -0.0000138700   -0.0001010200    0.0000179500
  -0.0000126100   -0.0000072800    0.0000054800
   0.0000126100   -0.0000072800    0.0000054800
   0.0000138700   -0.0001010200    0.0000179500

33   
  0.0000000000000000   0.0000000000000000  -0.0100000000000000
   0.0000000000    0.0032066400   -0.0030242500
   0.0002184700   -0.0001261300   -0.0002323900
   0.0000000000    0.0000221000   -0.0002198500
  -0.0002184700   -0.0001261300   -0.0002323900
   0.0027770300   -0.0016033200   -0.0030242500
  -0.0027770300   -0.0016033200   -0.0030242500
   0.0000195000   -0.0000732900   -0.0002102600
  -0.0000195000   -0.0000732900   -0.0002102600
   0.0000537200    0.0000535300   -0.0002102600
   0.0000000000    0.0002522700   -0.0002323900
  -0.0000537200    0.0000535300   -0.0002102600
   0.0000000000    0.0000000000   -0.0001929800
   0.0000732200    0.0000197600   -0.0002102600
  -0.0000191400   -0.0000110500   -0.0002198500
   0.0000191400   -0.0000110500   -0.0002198500
  -0.0000732200    0.0000197600   -0.0002102600
   0.0000000000    0.0000519600    0.0002343100
  -0.0000492400    0.0000284300    0.0004098100
   0.0000000000    0.0000174100    0.0001894300
   0.0000492400    0.0000284300    0.0004098100
   0.0000450000   -0.0000259800    0.0002343100
  -0.0000450000   -0.0000259800    0.0002343100
  -0.0000574700   -0.0000262800    0.0002395300
   0.0000574700   -0.0000262800    0.0002395300
   0.0000514900   -0.0000366300    0.0002395300
   0.0000000000   -0.0000568600    0.0004098100
  -0.0000514900   -0.0000366300    0.0002395300
   0.0000000000    0.0000000000    0.0001978400
  -0.0000059800    0.0000629100    0.0002395300
  -0.0000150800   -0.0000087000    0.0001894300
   0.0000150800   -0.0000087000    0.0001894300
   0.0000059800    0.0000629100    0.0002395300
   0.0000000000    0.0000000000    0.1255926500
  -0.0017083000   -0.0005433300    0.0054008900
   0.0000000000    0.0000008200    0.0027341300
   0.0017083000   -0.0005433300    0.0054008900
   0.0013246900   -0.0012077700    0.0054008900
  -0.0013246900   -0.0012077700    0.0054008900
   0.0000018200    0.0000010500    0.0022852400
  -0.0000018200    0.0000010500    0.0022852400
  -0.0000007100   -0.0000004100    0.0027341300
   0.0000000000    0.0000316500    0.0022862500
   0.0000007100   -0.0000004100    0.0027341300
   0.0000000000   -0.0000021000    0.0022852400
  -0.0003836100    0.0017510900    0.0054008900
   0.0000274100   -0.0000158300    0.0022862500
  -0.0000274100   -0.0000158300    0.0022862500
   0.0003836100    0.0017510900    0.0054008900
   0.0000000000    0.0000000000   -0.0176001300
   0.0011960000   -0.0013162500   -0.0024676300
   0.0000000000    0.0000530600   -0.0022214700
  -0.0011960000   -0.0013162500   -0.0024676300
   0.0005419100    0.0016938900   -0.0024676300
  -0.0005419100    0.0016938900   -0.0024676300
   0.0000591400    0.0000341400   -0.0019070300
  -0.0000591400    0.0000341400   -0.0019070300
  -0.0000459500   -0.0000265300   -0.0022214700
   0.0000000000   -0.0000332800   -0.0019076300
   0.0000459500   -0.0000265300   -0.0022214700
   0.0000000000   -0.0000682900   -0.0019070300
   0.0017379000   -0.0003776400   -0.0024676300
  -0.0000288200    0.0000166400   -0.0019076300
   0.0000288200    0.0000166400   -0.0019076300
  -0.0017379000   -0.0003776400   -0.0024676300
   0.0000625800   -0.0000361300    0.0018589700
  -0.0000413500   -0.0000137800    0.0020304200
   0.0000413500   -0.0000137800    0.0020304200
  -0.0000625800   -0.0000361300    0.0018589700
   0.0000000000    0.0000722600    0.0018589700
   0.0000280700    0.0000162100    0.0019187000
   0.0000000000    0.0000104900    0.0021005300
  -0.0000280700    0.0000162100    0.0019187000
   0.0000326100   -0.0000289200    0.0020304200
  -0.0000326100   -0.0000289200    0.0020304200
   0.0000090900   -0.0000052500    0.0021005300
  -0.0000090900   -0.0000052500    0.0021005300
  -0.0000087400    0.0000427000    0.0020304200
   0.0000000000    0.0000000000    0.0021322800
   0.0000087400    0.0000427000    0.0020304200
   0.0000000000   -0.0000324100    0.0019187000
  -0.0016979400    0.0009803000   -0.0041765400
   0.0000893900   -0.0000275800   -0.0019553000
  -0.0000893900   -0.0000275800   -0.0019553000
   0.0016979400    0.0009803000   -0.0041765400
   0.0000000000   -0.0019606100   -0.0041765400
  -0.0001265300   -0.0000730500   -0.0023218100
   0.0000000000    0.0000080800   -0.0020985400
   0.0001265300   -0.0000730500   -0.0023218100
  -0.0000208100    0.0000912100   -0.0019553000
   0.0000208100    0.0000912100   -0.0019553000
   0.0000070000   -0.0000040400   -0.0020985400
  -0.0000070000   -0.0000040400   -0.0020985400
   0.0000685800   -0.0000636300   -0.0019553000
   0.0000000000    0.0000000000   -0.0021434700
  -0.0000685800   -0.0000636300   -0.0019553000
   0.0000000000    0.0001461100   -0.0023218100
   0.0000000000   -0.0275379300   -0.0347688500
   0.0014108600   -0.0008145600   -0.0021547300
   0.0000000000    0.0001090100    0.0000587900
  -0.0014108600   -0.0008145600   -0.0021547300
  -0.0238485500    0.0137689700   -0.0347688500
   0.0238485500    0.0137689700   -0.0347688500
   0.0003051900   -0.0000238700   -0.0006240900
  -0.0003051900   -0.0000238700   -0.0006240900
  -0.0001319300    0.0002762400   -0.0006240900